[Molden Format]
made by pyscf v[1.7.3]
[Atoms] (AU)
C   1   6    -9.24314180404010     6.23174984097820     0.00054802057612
O   2   8    -6.60094563393448     6.20640861364779    -0.00619830168857
H   3   1    -9.98177905434885     4.88256097708373     1.43120297770060
H   4   1    -9.98177905434885     5.77299992697879    -1.91166584487126
H   5   1    -9.90212709819843     8.15492411794807     0.51283387568447
H   6   1    -6.10304059463408     4.45939460600988    -0.47154335986272
[GTO]
1 0
 s    5 1.00
          1238.4016938  0.0055173650481097
          186.29004992   0.041088828555946
          42.251176346     0.1822538212649
          11.676557932    0.46828459437429
          3.5930506482    0.44575817336002
 s    1 1.00
         0.40245147363                   1
 s    1 1.00
         0.13090182668                   1
 p    3 1.00
          9.4680970621   0.056888332011037
          2.0103545142    0.31294059336471
         0.54771004707    0.76065016509135
 p    1 1.00
         0.15268613795                   1
 d    1 1.00
                   0.8                   1

2 0
 s    5 1.00
          2266.1767785  -0.0053893503921743
          340.87010191   -0.04023472138896
          77.363135167   -0.18008184205526
           21.47964494   -0.46828857657651
          6.6589433124   -0.44692617160187
 s    1 1.00
         0.80975975668                   1
 s    1 1.00
         0.25530772234                   1
 p    3 1.00
          17.721504317   0.062630248763161
           3.863550544    0.33331138482352
          1.0480920883    0.74148638308122
 p    1 1.00
         0.27641544411                   1
 d    1 1.00
                   1.2                   1

3 0
 s    3 1.00
             13.010701   0.033485484812989
             1.9622572    0.23472187088125
            0.44453796    0.81377028525955
 s    1 1.00
            0.12194962                   1
 p    1 1.00
                   0.8                   1

4 0
 s    3 1.00
             13.010701   0.033485484812989
             1.9622572    0.23472187088125
            0.44453796    0.81377028525955
 s    1 1.00
            0.12194962                   1
 p    1 1.00
                   0.8                   1

5 0
 s    3 1.00
             13.010701   0.033485484812989
             1.9622572    0.23472187088125
            0.44453796    0.81377028525955
 s    1 1.00
            0.12194962                   1
 p    1 1.00
                   0.8                   1

6 0
 s    3 1.00
             13.010701   0.033485484812989
             1.9622572    0.23472187088125
            0.44453796    0.81377028525955
 s    1 1.00
            0.12194962                   1
 p    1 1.00
                   0.8                   1

[5d]
[7f]
[9g]

[MO]
 Sym= A
 Ene=    -19.19250651
 Spin= Alpha
 Occup=    2.00000
   1    -8.2577389391845e-05
   2    9.5828710755326e-05
   3    -0.013655810229997
   4    -0.00037530897250245
   5    9.2734452883649e-05
   6    2.470729649519e-05
   7    -0.0046607610662281
   8    -0.00069265192954672
   9    -0.00018454613267531
  10    -0.00050830532130668
  11    1.9357244370334e-05
  12    -4.9944796458922e-06
  13    0.00089779864614819
  14    7.2655093033173e-05
  15      0.98900636409995
  16    -0.039992209705493
  17     0.023277837170794
  18    0.0015314152828909
  19    0.0019083987234918
  20    0.00050833475077605
  21    -0.0055573897586064
  22    6.8581525115758e-05
  23    1.8268847890606e-05
  24    0.00033798712104317
  25    0.00012109240996467
  26    -0.00035765648249926
  27    0.00066204675065978
  28    0.00045461241960723
  29    0.0010553049129571
  30    0.0016201954598051
  31    0.00040373952466194
  32    0.00017443255269661
  33    -7.7073094519206e-05
  34    0.0010552971282267
  35      0.00162017986779
  36    0.00040374521786888
  37    0.00011297359141604
  38    0.0001536241926531
  39    0.0013659472523595
  40    0.0020266805931598
  41    0.00034527255711052
  42    -0.00022892176467308
  43    -6.0973391578442e-05
  44    0.0012313633567752
  45    -0.0011994709901641
  46    -0.00038657070999617
  47     0.002667870926822
  48    0.0007106293953945
 Sym= A
 Ene=    -10.31136252
 Spin= Alpha
 Occup=    2.00000
   1       0.9885555377988
   2     0.046935761170845
   3    -0.028100601027046
   4    0.00015024986396114
   5    -5.1158759173317e-05
   6    -1.3649897443353e-05
   7    0.0034086125661135
   8    0.00022224219948425
   9    5.9222701445345e-05
  10    0.00010996367840491
  11    -4.2009224453365e-05
  12    -2.2916355486704e-05
  13    -0.00011039190748771
  14    -0.00015776346159046
  15    -5.3649884895192e-05
  16    0.00072735370521635
  17    -0.0037733852597505
  18    0.00048383162794303
  19    -4.2605656238786e-05
  20    -1.1348028436412e-05
  21    0.0039611606122267
  22    0.0012484411671932
  23    0.0003325450121618
  24    0.00093725129594629
  25    -2.8652371289552e-06
  26    -0.00017152081285262
  27    -0.0010251302709846
  28    -1.0747482970857e-05
  29    -0.0031196244516353
  30    0.0065714635029926
  31    -0.00089764177268308
  32    -0.0014594697393432
  33    0.0014610987914114
  34    -0.0031197217809468
  35    0.0065716110813862
  36    -0.0008976489863281
  37    -0.00053926774240716
  38    -0.0019934874945251
  39    -0.0032816638227956
  40    0.0061995658089374
  41    -0.00085413807653137
  42    0.0020973219979987
  43    0.00055866684975212
  44    0.0013752390212971
  45    0.0010353775820824
  46    -0.00096856378652986
  47     0.000156900327592
  48    4.1792812127939e-05
 Sym= A
 Ene=    -1.125518213
 Spin= Alpha
 Occup=    2.00000
   1     -0.10388891686434
   2      0.19962527330012
   3      0.01367293396792
   4       0.1220831410964
   5    -0.0098773387270141
   6    -0.0026308421287315
   7     0.019051775415642
   8    -0.008584860310276
   9    -0.0022866702000467
  10    -0.011613827412971
  11    -0.0012221899554954
  12    0.00038937645466076
  13     0.018757549435002
  14    -0.004588497413817
  15       0.2628273245101
  16      0.52322349970889
  17      0.29548498657197
  18    -0.086483554728907
  19    -0.075611102688089
  20    -0.020140342887949
  21    -0.035060233057919
  22    -0.0057337907803402
  23    -0.0015274250890688
  24    -0.0078466578105466
  25    8.8712257137933e-05
  26    0.0027061745545029
  27     0.004151933800306
  28    0.00033286539318491
  29     0.033275381152345
  30    0.0081921550065526
  31    0.0027064116555865
  32    0.0043437509357355
  33    -0.0044318811304178
  34     0.033275874462505
  35    0.0081922565931008
  36    0.0027064776404552
  37    0.0015636548354666
  38    0.0060055213136304
  39     0.032201297806529
  40     0.011340157156565
  41    0.0020914839160238
  42    -0.0051311808250514
  43    -0.0013668240806875
  44      0.16984913981197
  45    0.0074581332845238
  46     -0.01237554985539
  47     0.025549841352237
  48    0.0068060867674994
 Sym= A
 Ene=   -0.7868827953
 Spin= Alpha
 Occup=    2.00000
   1     -0.22378688497424
   2      0.45455039702576
   3       0.1023960138825
   4    -0.059886741421453
   5      0.02226253049796
   6    0.0059289294972278
   7    -0.029598969222007
   8    0.00040509749357017
   9    0.00010778074768894
  10    -2.1690524573667e-05
  11    0.00092507299067188
  12    0.00021489805463946
  13    -0.00071169493580788
  14    0.0034727447149681
  15    -0.089103096488639
  16     -0.18939841689563
  17       -0.107835978269
  18     -0.16988702899255
  19      0.10838185956308
  20     0.028868755007161
  21    -0.091126206238314
  22     0.029953997879116
  23    0.0079784801074865
  24     -0.00190302440095
  25    0.00071556640647091
  26    -0.0023390364453853
  27     0.011454586100383
  28    0.0026862712688483
  29      0.17053427944082
  30      0.03943776426315
  31    0.0047607151510706
  32     0.012552285577059
  33    -0.012574467937386
  34      0.17053755586013
  35     0.039438200269162
  36    0.0047608925677103
  37    0.0046342039560905
  38     0.017152612902842
  39      0.18568489364927
  40     0.045372193993025
  41      0.00434173014323
  42    -0.018507405043811
  43    -0.0049299244652174
  44     -0.17021879841991
  45    -0.026458278012633
  46     0.001653751917172
  47    -0.020230333511586
  48    -0.0053891601102497
 Sym= A
 Ene=   -0.6095164184
 Spin= Alpha
 Occup=    2.00000
   1     0.031624611966862
   2    -0.056950367245886
   3     -0.03608742925765
   4      0.24063853775598
   5      0.19284491793276
   6     0.051372705545676
   7     0.078011994696421
   8     0.096198783740464
   9     0.025625658757045
  10    -0.013890077283077
  11    0.0030398056455963
  12    0.0021181944769554
  13     0.016669963276859
  14     0.011412409818243
  15     0.053775906834401
  16      0.11631508175544
  17      0.13845566611796
  18     -0.21962387677235
  19      0.33951817314898
  20     0.090437377472647
  21    -0.094862441414937
  22       0.1615720929392
  23     0.043038256334719
  24    0.0005570838505459
  25    -0.0014985478545824
  26    -0.0047191276235081
  27     0.015494852741502
  28    -0.0056254266406855
  29     -0.15359303482733
  30    -0.040646351726336
  31    -0.00064141058515821
  32    -0.0037343066947301
  33     0.009331659162757
  34     -0.15359997474128
  35    -0.040648018143165
  36    -0.00064153148255984
  37    0.0014022237389368
  38    -0.0099530546317871
  39     0.036718897556767
  40    0.0012393337871494
  41    0.0051358352562483
  42    0.0013058127140949
  43    0.00034793022762496
  44      -0.2847002527191
  45    -0.078478165636142
  46    0.0079259753744055
  47    -0.023312577931369
  48    -0.0062103706314677
 Sym= A
 Ene=   -0.5500295429
 Spin= Alpha
 Occup=    2.00000
   1    -4.5971593806631e-07
   2    1.0961867173019e-06
   3    1.7871699382511e-06
   4    -7.2549494658555e-06
   5     -0.10490827890512
   6      0.39387447081112
   7    -3.008733264411e-06
   8    -0.042435483303246
   9      0.15932001890116
  10    -0.0055490442670728
  11    0.0039993511282115
  12    -0.011174102254695
  13    -0.0032045510745356
  14    -0.0010655992316728
  15    -3.8491968454308e-07
  16    -9.0038745926821e-07
  17    -1.4690849934567e-06
  18    7.7837960606395e-06
  19    -0.070537817987892
  20       0.2647996717776
  21    4.0498281683064e-06
  22    -0.046573852098249
  23      0.17484351869627
  24    -0.0030192025649096
  25    -0.013899151774316
  26    -0.0060797559450315
  27    -0.0017434864177088
  28    0.0037020085543037
  29      0.25878650019391
  30     0.097941341020649
  31    0.0074932567640318
  32    0.0095324396028758
  33    -0.0038747991949712
  34     -0.25878687970262
  35    -0.097940946381156
  36    -0.0074934661331881
  37    -0.0063416736550988
  38    -0.008103049296285
  39    9.5944976869517e-06
  40    3.0911537921424e-06
  41    4.8672928886988e-08
  42    -0.0027395678483471
  43     0.010283087396071
  44    5.9230904074174e-06
  45    1.9827878948506e-06
  46    1.0491052978863e-07
  47    -0.0031976057074926
  48     0.012006851406676
 Sym= A
 Ene=   -0.5298157285
 Spin= Alpha
 Occup=    2.00000
   1    0.0050242706428879
   2    -0.018499463158786
   3    0.0033801093781761
   4     -0.26449965251259
   5      0.29690981034214
   6     0.079077872429642
   7     -0.09337186941256
   8      0.14822139560587
   9       0.0394773540098
  10    0.0044288150872743
  11    0.00038896804506453
  12    0.0043659367700843
  13    -0.022896919166455
  14    0.0014608443835963
  15     0.045037186964778
  16     0.086610071811366
  17      0.11901353010291
  18      0.36800969407147
  19     0.085209211462289
  20      0.02269076681443
  21      0.21302283475954
  22     0.069591722289879
  23     0.018532720768846
  24    0.0049692957779912
  25    -0.0046191990844658
  26    0.00015791687528581
  27    -0.0091573524228517
  28    -0.017342618194353
  29     -0.03565526863378
  30    -0.0088211936401779
  31    -0.0054782089270295
  32    0.0053695437207428
  33    0.0036323517025902
  34     -0.03564295518033
  35    -0.0088160965530405
  36    -0.0054778932019425
  37    0.0064652472945462
  38    -0.00047959908136687
  39      0.29814041667479
  40     0.096840243461263
  41    0.0015658185346404
  42    -0.012680803881337
  43    -0.0033781381857611
  44     0.067023161690716
  45     0.046508499078238
  46     0.017287018865744
  47    0.0098453296971034
  48    0.0026223693590597
 Sym= A
 Ene=   -0.4298847295
 Spin= Alpha
 Occup=    2.00000
   1     0.015084358969776
   2    -0.041799051074231
   3     0.026839717058628
   4     -0.13340343917961
   5     -0.26075930068615
   6    -0.069456268110642
   7    -0.027704037277661
   8    -0.072619393929718
   9    -0.019341247008488
  10     0.013242094998842
  11    0.0063716241886854
  12    -0.0063051467232915
  13    -0.00094514143387281
  14      0.02391945692737
  15      0.07851178654087
  16      0.15658713093878
  17      0.24412242874997
  18      0.23647355130177
  19       0.3661992555081
  20     0.097548737748346
  21      0.18271585220318
  22      0.23468782012312
  23     0.062516938911161
  24     0.008384981767735
  25    -0.001738432166826
  26    -0.005565314177847
  27    0.0048874599562085
  28    -0.0065257345737088
  29      0.15935804083399
  30     0.090567549885959
  31    -0.0010058960368335
  32    -0.0029367214244009
  33    -0.010737967061295
  34      0.15935615936002
  35     0.090566392697961
  36    -0.0010060341729663
  37    -0.0078891369018857
  38     0.007854166123608
  39     -0.25381040653246
  40     -0.13732609756224
  41    -0.0059728595238299
  42    0.0072323453676717
  43    0.0019266303325565
  44     -0.21383057679831
  45    -0.067407407128585
  46     0.017306677011079
  47    -0.0081100327940257
  48    -0.0021605078854085
 Sym= A
 Ene=   -0.3688811966
 Spin= Alpha
 Occup=    2.00000
   1    -2.1598706452452e-07
   2    4.6981256599143e-07
   3    -1.1134802249941e-06
   4    8.4668184784519e-07
   5     0.049394519425827
   6     -0.18543053782172
   7    4.5449212231052e-07
   8    0.0085324353192989
   9    -0.032026289838045
  10    0.0037796347924228
  11     0.031348074497333
  12    0.0076110802665784
  13    0.0021822577947431
  14    -0.0083501422575883
  15    -2.0006045872952e-07
  16    -2.9926050303891e-07
  17    -1.0783955093345e-06
  18    -2.4306558172789e-06
  19     -0.14902224246834
  20      0.55945986263335
  21    -1.9008702389766e-06
  22     -0.11689754103178
  23      0.43885848142576
  24    -0.0055575773219904
  25    -0.0081366567048322
  26    -0.011191195374279
  27    -0.0032085892075372
  28    0.0021673496648769
  29     -0.21514775756665
  30     -0.13458611266147
  31    -0.00040316457771355
  32    -0.0070533878254366
  33     0.001957967103962
  34      0.21514520578435
  35      0.13458409169043
  36    0.00040322744501426
  37    0.0051449864930222
  38    0.0052068254877488
  39    3.2689293578379e-07
  40    2.315695360206e-08
  41    8.0624610186003e-08
  42    0.0022897891821836
  43    -0.0085961299998336
  44    1.6857890422899e-06
  45    -3.1080773561006e-10
  46    -1.5741441158465e-07
  47    -0.0069069651119212
  48     0.025931269073028
 Sym= A
 Ene=    0.1464336701
 Spin= Alpha
 Occup=    0.00000
   1    -0.067049343464309
   2     0.090456238897509
   3       1.4537788993422
   4     -0.17570119448428
   5    -0.054115757206851
   6    -0.014410864202229
   7     -0.46116514670109
   8     -0.13539026314333
   9    -0.036056064980937
  10    -0.0044366453528283
  11    -0.0018019498889802
  12    -0.0007548144238338
  13     0.010317495971516
  14    -0.0067651502802243
  15     0.076944857877909
  16      0.13628276505902
  17      0.63874822582684
  18     0.024799502508455
  19     -0.18672760551948
  20    -0.049739003361676
  21     0.060939046848938
  22     -0.28456965261927
  23    -0.075801355613644
  24    -0.0043718926579141
  25    0.0012939132821535
  26    0.0026956827565238
  27    -0.0018295458542082
  28    0.0048579508112028
  29    -0.029203573339479
  30     -0.79886731059844
  31    -0.0057329926724641
  32     0.005730168072672
  33    -0.0020016823041018
  34    -0.029201565718112
  35     -0.79886064351323
  36    -0.0057330195175215
  37    0.0039751387185618
  38    0.0045870721958965
  39    -0.012098378724894
  40     -0.47193304573609
  41    -0.0085408706852396
  42    -0.0049247441728787
  43    -0.0013117382925455
  44     -0.12481260393474
  45     -0.97313914710867
  46    0.00069423355817979
  47     0.003192976335202
  48    0.00085033282163851
 Sym= A
 Ene=    0.1918466644
 Spin= Alpha
 Occup=    0.00000
   1     -0.12991424635552
   2      0.23438876360264
   3       2.1964177784214
   4    -0.038902175697707
   5     0.059832261268816
   6     0.015941683489285
   7     -0.17706130381359
   8      0.19684112699144
   9     0.052443024012819
  10    0.0017641395521943
  11    0.0017006363267158
  12    0.00081287057109365
  13    -0.0058907585219671
  14    0.0063844419630317
  15    -0.064426448561486
  16    -0.096113022168761
  17       -0.693226850497
  18     0.047340394187856
  19      0.15200764341269
  20     0.040488934138809
  21     0.085991677081459
  22      0.21515409449003
  23     0.057308038319502
  24    -7.6183370693934e-05
  25    -0.001767826102303
  26    -0.0016042156335937
  27    0.0057272100963601
  28    -0.006636491743073
  29    -0.013124683222682
  30     -0.92426555630283
  31     0.005823150351102
  32    -0.0010705105587278
  33    -0.0030882100433779
  34    -0.013123715815631
  35     -0.92425432033051
  36    0.0058231776584576
  37    -0.0024648113791218
  38    0.0021465685861628
  39    -0.037109014390388
  40      -1.2946020781448
  41    0.0077911979104318
  42    -0.0017806532987315
  43    -0.00047428432053026
  44      0.11554099045423
  45      0.80051146552774
  46     0.010879673647154
  47    -0.00037085394257388
  48    -9.8736617133269e-05
 Sym= A
 Ene=    0.2310831246
 Spin= Alpha
 Occup=    0.00000
   1    5.1818733593683e-06
   2    -3.9131143797604e-06
   3    -9.044466927642e-05
   4    -1.5581629057485e-05
   5      0.10259679660484
   6     -0.38455591524683
   7    -9.0119246837201e-05
   8      0.32321997228013
   9      -1.2114348964188
  10    -0.0043175203076392
  11    -0.0044866622662575
  12    -0.0087048195855003
  13    -0.0024894184497029
  14     0.001198139877725
  15    9.4434976919307e-06
  16    1.4155760206129e-05
  17    0.0001206415194856
  18    -2.6153646125806e-05
  19    -0.017249253941967
  20     0.064613389513125
  21    -5.0823468681944e-05
  22    -0.045669309639449
  23      0.17112518567855
  24    -0.0027871347616115
  25    0.0091898854442917
  26    -0.0056119240283454
  27    -0.0016099434281786
  28    -0.0024523528464603
  29     0.058908540641073
  30        1.658461704838
  31    0.00058693554043319
  32    -0.0064539479334768
  33    -0.0014483540014695
  34     -0.05886139030815
  35      -1.6576808779862
  36    -0.00058838926274196
  37    0.0063269369840504
  38    0.0019514347651964
  39    -4.906074941391e-05
  40    -0.00075340578150237
  41    -1.0434986800683e-06
  42    0.0023735813268958
  43    -0.0089203008666116
  44    3.3621544871921e-06
  45    -5.6204881612339e-05
  46    3.5352585378108e-06
  47    -0.0032081696954172
  48     0.012039774769156
 Sym= A
 Ene=    0.2324944251
 Spin= Alpha
 Occup=    0.00000
   1    -0.016050594942211
   2     0.015850556604594
   3      0.32164376841567
   4     0.038820586903792
   5     -0.36162874843013
   6    -0.096497875601415
   7      0.21279734474284
   8      -1.1936007415859
   9     -0.31848520316261
  10    -0.0077377561373745
  11    -0.0017730859436046
  12    0.0075925807183139
  13    -0.013095048806504
  14    -0.0066490051271896
  15    -0.023487301407541
  16    -0.035559729959928
  17     -0.29655202000623
  18     0.067198252953491
  19     0.083166033050557
  20     0.022181372894459
  21      0.12983207830063
  22      0.19117079414378
  23     0.050998693253548
  24    0.00025111388990917
  25    0.0026061824473548
  26    -0.00070497258944389
  27    0.0020133745289672
  28    0.0097687745070338
  29    -0.051150373350647
  30     -0.98474295602566
  31    0.0020895855585488
  32    -0.0061221742468432
  33    -0.0067480809577588
  34      -0.0511961387473
  35     -0.98614324076624
  36    0.0020891096834951
  37    -0.0086628751449286
  38    0.0028101222963877
  39      0.11358663712181
  40        1.785315554655
  41     0.002791519979158
  42    0.0056558236889269
  43    0.0015026839782778
  44    -0.0060822044517317
  45      0.12260659480545
  46    -0.0080762961334803
  47    0.0028094178696482
  48    0.00075347923200676
 Sym= A
 Ene=    0.2982389559
 Spin= Alpha
 Occup=    0.00000
   1    -0.059097899544973
   2      0.09701029640048
   3       1.0200298475489
   4      0.27060213604165
   5     0.030162029222276
   6    0.0080359857936936
   7       1.4582290100396
   8      0.17695239095423
   9     0.047145989363939
  10     0.023615215180025
  11    -0.0007483969970163
  12    -0.0033257869776163
  13    -0.029302625543014
  14    -0.0028091898900411
  15    -0.060421230779797
  16    -0.088673954945633
  17     -0.84844691472432
  18      0.33756428230795
  19     -0.13989469448279
  20    -0.037262672566781
  21       0.7513969276053
  22     -0.25199963177552
  23    -0.067123910939174
  24     0.003814138289929
  25    -0.00079326235005816
  26    -0.0011137025952529
  27    -0.0027217044276035
  28    -0.0029778629225137
  29      0.11130804440883
  30      0.16359285728021
  31     0.014781486354166
  32    -0.0029291758339751
  33      0.01084588432103
  34      0.11130627869281
  35      0.16362151949032
  36     0.014781701189521
  37    0.0028541042299726
  38    -0.010866138040719
  39     0.062083460988441
  40     -0.29318492512256
  41     0.011187046669346
  42     0.007619648614134
  43    0.0020297375350892
  44    -0.065275118638883
  45     -0.83122833861429
  46    0.0032263531844192
  47    0.0074164709268095
  48    0.0019754039398881
 Sym= A
 Ene=    0.5592067224
 Spin= Alpha
 Occup=    0.00000
   1     0.024055627348916
   2     -0.13439702709096
   3      0.22511796783922
   4     -0.13067170118935
   5     -0.21546501587036
   6    -0.057381981711866
   7     0.097947543566819
   8       1.1439574397114
   9      0.30466205461179
  10     0.063328624012821
  11      0.01214868509678
  12    -0.046491943178133
  13     0.052446810356067
  14     0.045614350823696
  15    -0.028069277137235
  16    -0.090622572494368
  17    -0.083168731711193
  18     -0.13893835020594
  19    -0.021501728754166
  20    -0.0057195709445698
  21    -0.037334816092043
  22     -0.15363359477213
  23    -0.040913730999145
  24    -0.0020804904130095
  25    -0.0053157874274119
  26    0.0078255781740573
  27    -0.023693433364914
  28    -0.019957919170444
  29       0.4298727000578
  30      -0.1462883850723
  31    -0.0085520228888738
  32     0.043389150812718
  33     0.039159990551721
  34      0.42979632136771
  35     -0.14625614380308
  36    -0.0085524416398234
  37     0.057123526027642
  38    -0.012389019737821
  39      -0.8451139491316
  40      0.11531724710023
  41    -0.0015923768960295
  42    -0.0038739161860708
  43    -0.0010351759260962
  44      0.26034004998437
  45     0.025926510614577
  46     0.052438403978607
  47    -0.035778498382123
  48    -0.0095293919514071
 Sym= A
 Ene=    0.5765640847
 Spin= Alpha
 Occup=    0.00000
   1    4.5314093271142e-07
   2    3.1981417449112e-06
   3    -3.7104693259036e-05
   4    -1.4136383388239e-05
   5     0.060267473868622
   6     -0.22629750962283
   7    2.437417585337e-05
   8     -0.35619712391116
   9       1.3375048657505
  10      0.04116890507228
  11      0.03360571996695
  12       0.0828933830919
  13      0.02377019687866
  14    -0.0089488181905024
  15    -8.3864108809913e-07
  16    -2.3662895288195e-06
  17    -7.4628670638074e-06
  18    -9.1914902285474e-06
  19     0.051002373367075
  20     -0.19147911987757
  21    -2.4311176315125e-06
  22     0.056859046001853
  23     -0.21349020049741
  24    0.0044868171514293
  25    -0.0094871704891966
  26    0.0090354925600802
  27    0.0025889344342859
  28    0.0025258642823902
  29     -0.74982141871484
  30    -0.012204950078441
  31    0.0057025459534588
  32     0.028348611428994
  33     0.030945733603122
  34      0.74986922588007
  35     0.012235863798671
  36    -0.0057043266474204
  37    -0.039979450812525
  38     0.012740990314749
  39    -3.6703724788863e-05
  40    1.277859790856e-06
  41    3.8650027151517e-07
  42    -0.020106390145051
  43     0.075481592567791
  44    1.5227055731112e-05
  45    -7.15916158609e-07
  46    2.6331323781002e-06
  47    0.0010114940993056
  48    -0.0038048565848309
 Sym= A
 Ene=    0.5904113294
 Spin= Alpha
 Occup=    0.00000
   1      0.18159284125899
   2      -1.0897341870857
   3       2.1604356851473
   4     -0.75997826067807
   5      0.14734159650313
   6     0.039246757832783
   7       1.0442394834868
   8     -0.50915027106726
   9     -0.13562662916913
  10    -0.027979165015099
  11    0.0017966396754889
  12    0.0069127838457745
  13     0.024348831081789
  14    0.0067459230435428
  15     0.043702367065293
  16      0.21615996058856
  17     -0.84461269044167
  18     -0.27030019046677
  19     0.063737091425789
  20     0.016978214429961
  21     0.070249675533477
  22      0.18136394858076
  23     0.048310299044411
  24     0.025546387659618
  25    0.00068755704765223
  26    0.0058091513817351
  27    -0.064509715794855
  28    0.0025813625509819
  29     0.017757506568148
  30     -0.43360904706656
  31    -0.045748699712264
  32    -0.011027459651497
  33    -0.00017826393234571
  34     0.017749979478686
  35     -0.43361156774393
  36    -0.045748935718356
  37    -0.0096540467727412
  38    -0.0053297814720522
  39      0.21452283299949
  40     -0.23999618544713
  41    -0.015780760509931
  42    -0.0071271309165541
  43    -0.0018992028137813
  44       0.3913026156202
  45     -0.58754379778154
  46    -0.089940054551589
  47    -0.030532932631737
  48    -0.0081322635374092
 Sym= A
 Ene=    0.6879826522
 Spin= Alpha
 Occup=    0.00000
   1    0.0069145609429913
   2     0.068002197849419
   3     -0.38603735626722
   4       -0.402336615673
   5     -0.42066296538396
   6      -0.1120395631913
   7      0.42094532665881
   8       1.0691536583138
   9      0.28476747635269
  10     -0.04044285662736
  11    -0.022274011920699
  12     0.010197039749502
  13     0.034485363964267
  14    -0.083624419534822
  15     0.067335797122411
  16      0.24761999075927
  17     -0.37959409428519
  18     -0.15635596557103
  19     -0.28536839188804
  20    -0.076011848956773
  21      0.10366412617645
  22     -0.24184430402778
  23    -0.064416182961123
  24     0.046867369757895
  25     0.013802551329744
  26    -0.031576463736981
  27     0.028958798986267
  28     0.051819594463508
  29    -0.056114747844816
  30      0.51101533052543
  31     0.023481097944115
  32     0.034323324709047
  33    -0.034708888289038
  34    -0.056108591497036
  35      0.51098729372276
  36     0.023479173210776
  37     0.012509082822195
  38     0.047182066235524
  39     0.099290188426958
  40     -0.70050005637389
  41    -0.074903708372861
  42     0.037377464108404
  43    0.0099566717120032
  44      -1.0276158271499
  45      0.92547566093645
  46    -0.048124258198872
  47      0.13464298479592
  48     0.035861875926062
 Sym= A
 Ene=    0.7513653518
 Spin= Alpha
 Occup=    0.00000
   1      0.25092997044742
   2      -1.5884554111459
   3       3.9771974151054
   4      0.52648495797435
   5     -0.22452729364595
   6    -0.059914320014775
   7     -0.91941702969336
   8      0.50582197682138
   9      0.13494394488629
  10     0.018018728420681
  11    -0.0066487055064254
  12     0.007140860621311
  13    -0.056148979705459
  14    -0.024920547722356
  15    -0.00050734783352389
  16    -0.0024875578017922
  17     -0.10229149900132
  18    -0.030961054436308
  19    -0.007138237239549
  20    -0.0018981969506282
  21     0.058074497592514
  22     -0.10873336459056
  23    -0.028985089054836
  24    0.0035049484838111
  25    0.0026167320868241
  26    -0.004264016850927
  27    0.0088037603691544
  28    0.0098129538129695
  29      0.28327402534025
  30      -1.1331449685434
  31    -0.00014158721453298
  32    -0.071529822169014
  33     0.067907102193694
  34      0.28319372347171
  35      -1.1328259923949
  36    -0.00012567091552662
  37     -0.02826283128249
  38     -0.09446707667321
  39      0.39940574161557
  40      -1.7365725899772
  41    -0.036325010735934
  42      0.13998075426089
  43     0.037283035071068
  44     -0.17866777508071
  45      0.19487441850535
  46     0.004712351498214
  47     0.004090758731374
  48    0.0010901761333135
 Sym= A
 Ene=    0.7647583753
 Spin= Alpha
 Occup=    0.00000
   1    -2.4308145691557e-05
   2    0.00018918515963758
   3    -0.00054386459605315
   4    -5.7410262167402e-05
   5      0.24484985577002
   6     -0.91882502304857
   7    0.00010138508743207
   8     -0.46240667652227
   9       1.7352627232843
  10    -0.043137675744563
  11     -0.10158299421179
  12     -0.08688295882763
  13    -0.024897740578688
  14     0.027064993223408
  15    9.6136855903175e-06
  16    3.9283789164793e-05
  17    -1.5359638783852e-05
  18    -3.9815386914659e-06
  19    -0.010068449316751
  20     0.037697903376179
  21    -1.3243668025732e-05
  22     0.048549563794582
  23     -0.18214824262159
  24    0.0017844469883677
  25      0.02651762937348
  26    0.0035869098187092
  27    0.0010324397079931
  28    -0.0070630374520476
  29      0.42627255424254
  30      -1.5531395879241
  31    -0.075914698329096
  32     -0.10103356336385
  33     0.076492636793652
  34     -0.42620833125871
  35       1.5532487874292
  36     0.075911279829782
  37     0.049606335606108