[Molden Format]
made by pyscf v[1.7.3]
[Atoms] (AU)
C   1   6    -9.24314180404010     6.23174984097820     0.00054802057612
O   2   8    -6.60094563393448     6.20640861364779    -0.00619830168857
H   3   1    -9.98177905434885     4.88256097708373     1.43120297770060
H   4   1    -9.98177905434885     5.77299992697879    -1.91166584487126
H   5   1    -9.90212709819843     8.15492411794807     0.51283387568447
H   6   1    -6.10304059463408     4.45939460600988    -0.47154335986272
[GTO]
1 0
 s    5 1.00
          1238.4016938  0.0055173650481097
          186.29004992   0.041088828555946
          42.251176346     0.1822538212649
          11.676557932    0.46828459437429
          3.5930506482    0.44575817336002
 s    1 1.00
         0.40245147363                   1
 s    1 1.00
         0.13090182668                   1
 p    3 1.00
          9.4680970621   0.056888332011037
          2.0103545142    0.31294059336471
         0.54771004707    0.76065016509135
 p    1 1.00
         0.15268613795                   1
 d    1 1.00
                   0.8                   1

2 0
 s    5 1.00
          2266.1767785  -0.0053893503921743
          340.87010191   -0.04023472138896
          77.363135167   -0.18008184205526
           21.47964494   -0.46828857657651
          6.6589433124   -0.44692617160187
 s    1 1.00
         0.80975975668                   1
 s    1 1.00
         0.25530772234                   1
 p    3 1.00
          17.721504317   0.062630248763161
           3.863550544    0.33331138482352
          1.0480920883    0.74148638308122
 p    1 1.00
         0.27641544411                   1
 d    1 1.00
                   1.2                   1

3 0
 s    3 1.00
             13.010701   0.033485484812989
             1.9622572    0.23472187088125
            0.44453796    0.81377028525955
 s    1 1.00
            0.12194962                   1
 p    1 1.00
                   0.8                   1

4 0
 s    3 1.00
             13.010701   0.033485484812989
             1.9622572    0.23472187088125
            0.44453796    0.81377028525955
 s    1 1.00
            0.12194962                   1
 p    1 1.00
                   0.8                   1

5 0
 s    3 1.00
             13.010701   0.033485484812989
             1.9622572    0.23472187088125
            0.44453796    0.81377028525955
 s    1 1.00
            0.12194962                   1
 p    1 1.00
                   0.8                   1

6 0
 s    3 1.00
             13.010701   0.033485484812989
             1.9622572    0.23472187088125
            0.44453796    0.81377028525955
 s    1 1.00
            0.12194962                   1
 p    1 1.00
                   0.8                   1

[5d]
[7f]
[9g]

[MO]
 Sym= A
 Ene=    -19.19982189
 Spin= Alpha
 Occup=    2.00000
   1    -8.5968816939025e-05
   2    9.0061868072446e-05
   3    -0.013755370954871
   4    -0.00037637801763054
   5    9.2934028319038e-05
   6    2.4760595840924e-05
   7    -0.0046969018602732
   8    -0.00069266267478066
   9    -0.00018455027571985
  10    -0.00050638123927975
  11    1.9508821221475e-05
  12    -5.122398482969e-06
  13    0.00089491183282702
  14     7.32243353264e-05
  15      0.98893810535109
  16    -0.040247396507485
  17     0.023457666830108
  18    0.0015563541640011
  19    0.0019320174597358
  20    0.00051462316437239
  21    -0.0056086063464285
  22    5.7979373909572e-05
  23    1.5446059835941e-05
  24    0.00032947863009605
  25    0.0001205175287136
  26    -0.00035513292517347
  27    0.00066798036642305
  28    0.00045245487984048
  29    0.0010568328066237
  30    0.0016300111806648
  31    0.00040810209196754
  32    0.00017538214079542
  33    -7.8120196354663e-05
  34    0.0010568249459877
  35    0.0016299943216494
  36    0.00040810796651247
  37    0.00011327620367759
  38    0.00015500487340828
  39    0.0013705715143443
  40     0.002039997870072
  41    0.0003495749297174
  42    -0.00023079550752989
  43    -6.1472384792506e-05
  44    0.0012271772054982
  45    -0.0011898367169445
  46    -0.00038728197470789
  47    0.0026776572483429
  48    0.00071323634312788
 Sym= A
 Ene=    -10.27242524
 Spin= Alpha
 Occup=    2.00000
   1      0.98837848261092
   2     0.047808304179052
   3    -0.028557625628156
   4    0.0001634797382689
   5    -4.9982835623971e-05
   6    -1.334763349137e-05
   7    0.0034817510893506
   8    0.00023380193350454
   9    6.2301280182956e-05
  10    0.00011767331270908
  11    -4.3174941813517e-05
  12    -2.416263905284e-05
  13    -0.00011938012260471
  14    -0.00016215763550659
  15    -4.8939918891942e-05
  16    0.00078089930364381
  17    -0.0039431474691388
  18    0.00050672158668792
  19    -4.1466533354329e-05
  20    -1.1044765585995e-05
  21    0.0041291408551986
  22    0.0012866770919775
  23    0.00034273072698244
  24    0.00096489695461974
  25    -3.1919039090223e-06
  26    -0.00017691683239769
  27    -0.0010541939650454
  28    -1.1973829530648e-05
  29    -0.0032359666171443
  30    0.0066528806086338
  31    -0.00093777399094641
  32    -0.001525698341062
  33    0.0015284639641502
  34    -0.003236075146085
  35    0.0066530285560495
  36    -0.00093778461979153
  37    -0.00056321341739552
  38    -0.0020848793776838
  39    -0.0034050282935486
  40    0.0062687427454376
  41    -0.00089227719238865
  42    0.0021932550650609
  43    0.00058422149262799
  44    0.0014221740136641
  45    0.0010711876902455
  46    -0.0010008613586614
  47    0.00016417440919509
  48    4.372977695194e-05
 Sym= A
 Ene=    -1.027094724
 Spin= Alpha
 Occup=    2.00000
   1     -0.10193266774902
   2      0.19646180479902
   3    0.0061556641646509
   4      0.12125758002523
   5    -0.0096828403757699
   6    -0.002579073713295
   7     0.014955903349093
   8    -0.0088162442482238
   9    -0.0023485866142269
  10    -0.011621759068971
  11    -0.0012147773171961
  12    0.00039257741624702
  13     0.018760063329769
  14    -0.004560502927323
  15      0.26465759366849
  16      0.52644733144524
  17      0.30467920986891
  18    -0.085133204295132
  19    -0.075607822262949
  20     -0.02013951713393
  21    -0.038152791753372
  22    -0.0075170198751154
  23    -0.0020022734703772
  24    -0.007700148982451
  25    9.8320388466582e-05
  26    0.0026063240626798
  27    0.0042465075000667
  28    0.00036904517588059
  29     0.031982949672058
  30    0.0075278413695131
  31    0.0029053349413359
  32    0.0042750992702489
  33    -0.0043273946476144
  34     0.031983628070353
  35    0.0075280316823485
  36     0.002905519547539
  37    0.0015559549767417
  38     0.005880836230863
  39     0.031266727958537
  40     0.010854822505358
  41    0.0022904885952321
  42    -0.0050834625806598
  43    -0.0013540640361944
  44      0.16904006210702
  45    0.0034949459304084
  46    -0.012427412607837
  47     0.026186914416281
  48    0.0069754002364436
 Sym= A
 Ene=   -0.6818972048
 Spin= Alpha
 Occup=    2.00000
   1     -0.22590273093251
   2      0.45994422083462
   3      0.11388446203814
   4    -0.054879554111272
   5     0.023168619774033
   6    0.0061694603435462
   7    -0.029560643984995
   8    0.0011251016915748
   9    0.00029828630081331
  10    -0.00018179467915996
  11    0.00099034966415214
  12    0.00018723984932584
  13    -0.00033756346123772
  14    0.0037174037814296
  15    -0.087006338976252
  16     -0.18574546705896
  17     -0.10551443242983
  18     -0.17367396986209
  19      0.11153822524533
  20     0.029709302207489
  21    -0.093067174408138
  22     0.032714534731776
  23    0.0087135387471771
  24      -0.0021668380081
  25    0.00067288955398933
  26    -0.0022562825970264
  27     0.011622844793692
  28    0.0025259898605847
  29      0.16877476481808
  30     0.032408346134455
  31    0.0047802559660882
  32     0.012653662395897
  33    -0.012610753813618
  34      0.16877859184269
  35     0.032409548853009
  36    0.0047804180762337
  37    0.0047039562379095
  38     0.017234614915168
  39      0.18411251332815
  40     0.038331233689942
  41    0.0045140315171719
  42    -0.018676050458922
  43    -0.004974635382671
  44     -0.17148024570076
  45    -0.024493980818261
  46     0.001735237002649
  47    -0.020842607904816
  48    -0.0055516673600616
 Sym= A
 Ene=   -0.5131144206
 Spin= Alpha
 Occup=    2.00000
   1     0.034955776535361
   2    -0.064573509777863
   3    -0.039869938492089
   4       0.2474740097357
   5      0.18551642460423
   6     0.049422875912608
   7     0.083060475123815
   8     0.093206097961244
   9     0.024830526310244
  10     -0.01366049935931
  11    0.0031874597902967
  12    0.0018889760360979
  13     0.017071133640694
  14     0.011967002131983
  15     0.053003851343506
  16      0.11538047954774
  17      0.13502773241171
  18     -0.22674138735986
  19      0.33575559868749
  20     0.089436540092592
  21     -0.10032803353799
  22       0.1603136091061
  23     0.042703221208823
  24    0.00042691742927544
  25    -0.0014463981177243
  26    -0.004464447998984
  27     0.014831685225018
  28    -0.0054294936038396
  29     -0.15342880577364
  30    -0.037584978202015
  31    -0.00044164108516928
  32    -0.0036395446425817
  33    0.0094539517183605
  34     -0.15343857767398
  35    -0.037587906762742
  36    -0.00044200452858028
  37    0.0015455056812118
  38     -0.01001214565149
  39     0.025458170787972
  40    -0.0030521663131667
  41    0.0056964241580654
  42    0.0020929854353687
  43    0.00055759813057325
  44     -0.28346479350409
  45    -0.081604837495234
  46    0.0078508915132464
  47    -0.023808512138625
  48    -0.0063416965085674
 Sym= A
 Ene=   -0.4519594495
 Spin= Alpha
 Occup=    2.00000
   1    -1.4629075147256e-06
   2    4.7018454828861e-06
   3    -3.7207412619864e-06
   4    -1.2343858363759e-05
   5     -0.10558923921443
   6      0.39644517091425
   7    -5.9352497114669e-06
   8    -0.043400913752581
   9      0.16296355444652
  10    -0.0054572392549192
  11    0.0044118960367766
  12    -0.010989354193951
  13    -0.0031519630797718
  14    -0.0011755260072382
  15    -1.6372609953345e-07
  16    -7.5314257402416e-07
  17    9.2895110585634e-07
  18    1.3279925830063e-05
  19     -0.06949216483282
  20      0.26087054252383
  21    6.5168390595419e-06
  22    -0.045742068723455
  23      0.17172017313625
  24    -0.0029623871318213
  25    -0.014204812391718
  26    -0.0059654428596628
  27    -0.0017108087250206
  28    0.0037832379514742
  29      0.25859944818097
  30     0.095671069495182
  31    0.0077709918074008
  32    0.0092657714561998
  33    -0.0030864517430027
  34     -0.25859700933365
  35    -0.095667661208905
  36    -0.0077712228676025
  37    -0.0065023347370343
  38    -0.007286128801362
  39    1.4884895036748e-05
  40    3.6543091882022e-06
  41    5.0932672115083e-09
  42    -0.002919260699702
  43     0.010956551569136
  44    8.808665010017e-06
  45    3.4005655007656e-06
  46    -1.2149405068383e-07
  47    -0.0032189820695443
  48     0.012087954167055
 Sym= A
 Ene=    -0.434759262
 Spin= Alpha
 Occup=    2.00000
   1    0.0048926302174919
   2    -0.016532007322417
   3    -0.0041252890358396
   4     -0.25835483109065
   5       0.3018601963286
   6     0.080389989754976
   7    -0.096515414317502
   8      0.15356535987732
   9     0.040897651838067
  10    0.0039399037446202
  11    0.00058401427201101
  12     0.004326013351015
  13    -0.021910725703133
  14    0.0021929622170564
  15     0.046556730327463
  16     0.089737439660331
  17      0.12606077553324
  18      0.36031923400612
  19     0.096321173694411
  20     0.025646224570145
  21       0.2086611290903
  22      0.07537372762577
  23     0.020070362693751
  24     0.004734416014344
  25    -0.0046628191677954
  26    4.633029253434e-05
  27    -0.0083608444990562
  28    -0.017507377996923
  29    -0.038201774241196
  30    -0.0073311119512103
  31    -0.0058399138862669
  32    0.0057802143645166
  33    0.0038790732779702
  34    -0.038182041437259
  35    -0.0073249197021891
  36    -0.0058396083484683
  37    0.0069447297176245
  38    -0.0004892944229893
  39      0.29751294269024
  40     0.095213228161773
  41     0.001546756943547
  42    -0.011977581550805
  43    -0.0031908010062465
  44     0.058745441075283
  45      0.04658531199698
  46       0.0183349835978
  47    0.0093086237288803
  48     0.002478748097703
 Sym= A
 Ene=    -0.337191443
 Spin= Alpha
 Occup=    2.00000
   1     0.015279862775871
   2    -0.041611023834872
   3     0.021734001917294
   4     -0.13359656972459
   5     -0.26017111007665
   6    -0.069298742119352
   7    -0.031531015022724
   8    -0.072610423383786
   9    -0.019339306718763
  10     0.013129770066145
  11    0.0063753371532921
  12    -0.0063422914762266
  13    -0.00062034944657403
  14     0.023932872485449
  15     0.078651329611927
  16      0.15647247230499
  17      0.25010895316968
  18      0.23515524070807
  19      0.36379231220015
  20     0.096908779996443
  21      0.18096326245939
  22      0.23279744758965
  23     0.062013872587322
  24    0.0081670662358084
  25    -0.001576816562112
  26    -0.0054485587572515
  27    0.0048575033176927
  28    -0.0059189902720538
  29      0.15923090237561
  30     0.094033061014514
  31    -0.0014767324979303
  32    -0.0035005962156456
  33    -0.010593356292687
  34      0.15922733561039
  35      0.09403206080208
  36    -0.0014770378198289
  37    -0.0083065999133789
  38    0.0074480703977063
  39     -0.25446049288816
  40     -0.14082332546535
  41    -0.0056606669473152
  42    0.0064714771752714
  43    0.0017239363741124
  44      -0.2152549722595
  45    -0.072014704159156
  46     0.017219000498441
  47    -0.0082246274379816
  48    -0.0021903524795063
 Sym= A
 Ene=   -0.2758209077
 Spin= Alpha
 Occup=    2.00000
   1    2.8077033038459e-08
   2    -7.8351830882887e-07
   3    2.1067950515402e-06
   4     1.05145413958e-06
   5     0.047989241269435
   6     -0.18015300200595
   7    -3.903001991018e-07
   8    0.0077541332948319
   9    -0.029109753229007
  10    0.0037764403606896
  11     0.031530303763983
  12    0.0076045835029296
  13    0.0021803331850539
  14    -0.0083986992507774
  15    -1.7747236794209e-07
  16    -1.6972245061494e-07
  17    -1.5568351631863e-06
  18    -2.490209616714e-06
  19     -0.14933560692154
  20      0.56063675823677
  21    -1.9031141101783e-06
  22     -0.11709914000958
  23      0.43961404271661
  24    -0.0054357275086545
  25    -0.0076988815250732
  26    -0.010945821631172
  27    -0.0031382385186651
  28    0.0020507533740801
  29     -0.21318456788899
  30     -0.14047369166576
  31    0.00037188587717112
  32    -0.0065399475336628
  33    0.0012805094823506
  34      0.21317989323117
  35      0.14046820692927
  36    -0.00037190206246222
  37    0.0050366311018408
  38    0.0043633585129931
  39    3.1390273161707e-07
  40    1.066120541191e-06
  41    1.7682096577828e-07
  42    0.0023153942321725
  43    -0.0086920281781474
  44    5.4198908433388e-07
  45    1.6278926775979e-06
  46    -1.1262238858707e-07
  47    -0.0070313400603229
  48      0.02639772980569
 Sym= A
 Ene=   0.06155027506
 Spin= Alpha
 Occup=    0.00000
   1    -0.059424079347056
   2       0.0787848636906
   3       1.3157297433533
   4     -0.17754781587111
   5    -0.053544426581497
   6    -0.014262399958338
   7     -0.43137091644661
   8     -0.13481909825791
   9    -0.035911315834437
  10    -0.0047449255766939
  11    -0.0019475895170986
  12    -0.00085777946946566
  13     0.011210785243456
  14    -0.0073127065871156
  15     0.079758889029704
  16      0.14216129664991
  17      0.66507561360168
  18     0.023126781588072
  19     -0.20113549795293
  20    -0.053576280918455
  21     0.060164114032791
  22     -0.29975368424791
  23    -0.079844775858441
  24    -0.004048548939941
  25    0.0014256929158169
  26    0.0025788064515088
  27    -0.0019822643935045
  28    0.0053523720230192
  29     -0.03164000021701
  30     -0.72735568389021
  31    -0.0065503919349245
  32    0.0067474549666308
  33    -0.0025805761456724
  34    -0.031636840329325
  35     -0.72736993347041
  36    -0.0065507669224861
  37    0.0045699460652617
  38    0.0055949340879476
  39    -0.010512590460269
  40     -0.40818784302198
  41    -0.0094749574782231
  42    -0.005663614030612
  43    -0.0015086234864717
  44     -0.13928481305508
  45      -1.0193592159013
  46    -0.00018137490953395
  47    0.0046866087027132
  48    0.0012479387614219
 Sym= A
 Ene=    0.1080235872
 Spin= Alpha
 Occup=    0.00000
   1     -0.13464584056682
   2      0.24983517605082
   3       2.2451991440838
   4    -0.049705062010162
   5     0.054515279792652
   6      0.01452336688931
   7     -0.20309720219183
   8      0.17776364575834
   9     0.047357868834592
  10    0.0014244861100029
  11    0.0016333583043892
  12    0.00082592282517289
  13    -0.0053483194153231
  14    0.0061321296430466
  15    -0.059019759395844
  16    -0.087317599447241
  17      -0.6470039875403
  18     0.051159284191325
  19      0.14428656164682
  20     0.038431916953843
  21      0.08915236021077
  22      0.19972707938799
  23     0.053199269295285
  24    -0.0006446991070333
  25    -0.0017219619883797
  26    -0.0012864624372182
  27    0.0056037015722698
  28    -0.0064645002814268
  29    -0.019713128840517
  30     -0.96692215108863
  31    0.0060315152482256
  32    1.3677726911185e-05
  33    -0.0040222753122568
  34    -0.019710181989056
  35     -0.96692607102793
  36    0.0060318662825555
  37    -0.0019890676240879
  38    0.0034963034161887
  39    -0.043741381309955
  40      -1.2949701324087
  41    0.0078558325655164
  42    -0.0033899940053228
  43    -0.00090307685468194
  44      0.11353970385849
  45       0.7388125589954
  46      0.01143588363966
  47    -0.00081211896930217
  48    -0.00021633244122199
 Sym= A
 Ene=     0.147524207
 Spin= Alpha
 Occup=    0.00000
   1    1.7501299811597e-05
   2    -1.5616806808646e-05
   3    -0.00034334385963882
   4    -4.4356113268316e-05
   5      0.10568815351658
   6     -0.39510987302762
   7    -0.00024516942806731
   8      0.31846631721892
   9      -1.1903284187226
  10    -0.0049715978704118
  11    -0.0052882351685246
  12    -0.010040726213048
  13    -0.0028603581244749
  14    0.0014176403197908
  15    2.4162117694724e-05
  16    3.5849907870696e-05
  17    0.00031980339895364
  18    -7.9799914053841e-05
  19     -0.01856178580146
  20     0.069310219940485
  21    -0.00015079770573035
  22    -0.045802053634604
  23      0.17112759187582
  24    -0.0028997744097165
  25    0.0093785264126405
  26    -0.0058388496814758
  27    -0.0016762007622807
  28    -0.0025100731773595
  29     0.065288846513514
  30       1.6376233949441
  31    -0.00062649298046091
  32    -0.0086183369340015
  33    -0.00026070283219397
  34    -0.065158948201797
  35      -1.6354866583895
  36    0.00062023260695802
  37    0.0076275891817211
  38    0.0040514019640438
  39    -0.00013771141588261
  40    -0.0019587443970851
  41    -1.994611627289e-06
  42    0.0027535472885649
  43    -0.010372538575277
  44    1.1363619084436e-05
  45    -0.00011182763323325
  46    8.7151478911557e-06
  47    -0.0034146223263845
  48     0.012808985802375
 Sym= A
 Ene=    0.1484329397
 Spin= Alpha
 Occup=    0.00000
   1     -0.01635669107382
   2     0.018371541451458
   3      0.31338695986381
   4       0.0410410144341
   5     -0.37303802140531
   6    -0.099834350136986
   7      0.21167104584047
   8      -1.1733434011354
   9     -0.31396360209777
  10    -0.0086003070947624
  11    -0.0020139822767716
  12    0.0083721552583519
  13    -0.014354307064757
  14    -0.0075358355415622
  15    -0.022129066984155
  16    -0.034133834677331
  17      -0.2823881300511
  18     0.071323661738457
  19     0.084151338012063
  20     0.022497137006362
  21      0.13213523763439
  22      0.18421867310876
  23     0.049273586527916
  24    -0.0001251014183862
  25    0.0026686128298716
  26    -0.00048119120011326
  27    0.0018653217860548
  28    0.0099766822918516
  29    -0.054599726835046
  30      -0.9689244544282
  31    0.0032257502754769
  32    -0.0062322951201188
  33    -0.0085022195219201
  34    -0.054741111329449
  35     -0.97257643096202
  36     0.003227788829994
  37    -0.0096196851213125
  38    0.0042850665808179
  39      0.12060533409701
  40       1.7659437980579
  41    0.0018772963713027
  42    0.0082655188866332
  43    0.0021895046574663
  44    -0.0087543017450228
  45      0.10547662020106
  46    -0.0078778632510167
  47    0.0021000659137918
  48    0.00057488347169321
 Sym= A
 Ene=    0.2084193008
 Spin= Alpha
 Occup=    0.00000
   1    -0.061431789705425
   2      0.11026496667677
   3      0.98558866319301
   4      0.28819512259723
   5     0.034845019131398
   6    0.0092796710158501
   7       1.4260578166077
   8      0.17880422199436
   9     0.047634770727256
  10     0.025593057849536
  11    -0.00060954665385896
  12    -0.0035553675867626
  13    -0.031927374390423
  14    -0.0022867696936259
  15    -0.061161708286633
  16    -0.093176565228862
  17     -0.83029525211224
  18      0.34802002364663
  19     -0.13985327612434
  20     -0.03724989571289
  21      0.74242377552819
  22     -0.24808976719249
  23    -0.066082887479452
  24    0.0033732957803924
  25    -0.0008492875891008
  26    -0.0012680468891545
  27    -0.001419915854012
  28    -0.0031885909854537
  29      0.11089080872146
  30      0.16923176226836
  31     0.016921413958275
  32    -0.0037023921434567
  33     0.012020604309318
  34      0.11088943308627
  35      0.16924227801076
  36     0.016921986981093
  37     0.002767889837806
  38    -0.012269509352818
  39       0.0609058816924
  40     -0.29438989891185
  41     0.014034406374902
  42    0.0080412488983645
  43    0.0021416254725637
  44     -0.06909732945228
  45     -0.80958091462722
  46    0.0043114982069166
  47    0.0088209989506226
  48    0.0023501927613893
 Sym= A
 Ene=    0.4705763451
 Spin= Alpha
 Occup=    0.00000
   1     0.029605847118525
   2     -0.16802339958232
   3      0.29740943891054
   4     -0.15585698286741
   5     -0.19925821316771
   6    -0.053077072499234
   7      0.14588034849239
   8       1.0842102202532
   9      0.28882301115752
  10      0.06559325998562
  11     0.012997197796254
  12    -0.048239751803333
  13     0.054638466153795
  14     0.048790845713591
  15    -0.026827284417652
  16    -0.083631969825137
  17     -0.11538883771096
  18     -0.14675242357999
  19    -0.018734246099983
  20    -0.0049931713759648
  21    -0.029676400122667
  22      -0.1410610802939
  23    -0.037575989622804
  24    -0.0014235202787933
  25    -0.0055701401499766
  26    0.0082334319313186
  27    -0.026251303614109
  28     -0.02091071106653
  29      0.43327933914658
  30     -0.17537461041993
  31    -0.011025171995196
  32     0.044113870415046
  33     0.042427484417474
  34      0.43327986425128
  35     -0.17533275155844
  36    -0.011027071572742
  37     0.059374399596352
  38    -0.014862879673826
  39     -0.83741757479694
  40      0.14351221133537
  41    0.00043517930823134
  42    -0.0069764141416324
  43    -0.0018574816108153
  44      0.28412447434206
  45    -0.012448200331416
  46     0.050061462200274
  47    -0.036932662532141
  48    -0.0098387988709665
 Sym= A
 Ene=    0.4881051279
 Spin= Alpha
 Occup=    0.00000
   1    -1.0390339443786e-06
   2    1.7837665852233e-05
   3    -8.4006290776122e-05
   4    -9.429855928503e-06
   5     0.057143127395395
   6     -0.21453863493392
   7    2.3312314537196e-05
   8     -0.34546406653089
   9       1.2969987929316
  10     0.043041970209001
  11     0.036946935135372
  12     0.086674980177694
  13     0.024850582405182
  14    -0.0098412630690694
  15    1.0119465933038e-06
  16    3.7222281989464e-06
  17    -9.1264272681563e-07
  18    -3.3307241092414e-06
  19     0.051420299745217
  20     -0.19303703247583
  21    -3.5943112516414e-06
  22     0.054942466510117
  23     -0.20625837717323
  24    0.0044724079651832
  25    -0.010270492749657
  26    0.0090060337897778
  27    0.0025817803198177
  28     0.002735669405528
  29     -0.75369679390535
  30       0.0203802761543
  31    0.0080277870205978
  32     0.031751833150843
  33     0.030188317569126
  34      0.75370899212173
  35    -0.020312419937944
  36    -0.0080287751930629
  37    -0.042562074901063
  38     0.010392405227365
  39    1.2823699167047e-05
  40    -3.0349037537114e-06
  41    3.4020468464281e-08
  42    -0.021155044506037
  43      0.07941952043063
  44    6.2361046382226e-06
  45    -1.7596001576453e-06
  46    -8.1870826170678e-07
  47    0.00098524458031828
  48    -0.0036991190725263
 Sym= A
 Ene=    0.4988750977
 Spin= Alpha
 Occup=    0.00000
   1      0.17715497197728
   2      -1.0562603040904
   3       2.0824136068553
   4      -0.7560737289566
   5      0.15227218191629
   6     0.040558004469882
   7       1.0704239619343
   8     -0.54455970394601
   9     -0.14505953290426
  10    -0.029358968714715
  11    0.0011756795615084
  12    0.0093090854876078
  13     0.018379718177086
  14    0.0044166958483555
  15     0.043777527837029
  16      0.21579623577972
  17     -0.83948563538233
  18     -0.25964488373284
  19     0.065421517422111
  20     0.017429051681554
  21      0.07796822289541
  22      0.18065569422565
  23     0.048120622051413
  24     0.025529056079318
  25    0.00089483052614334
  26    0.0057374573444768
  27     -0.06422943261229
  28    0.0033593387827291
  29     0.013300759478178
  30     -0.40889352573629
  31     -0.04302901689043
  32    -0.013999689065705
  33    -0.0017885749561646
  34     0.013289461831418
  35      -0.4088979833664
  36     -0.04302799517913
  37    -0.013033531325625
  38    -0.0054102570760947
  39      0.25978182373878
  40     -0.23574309157179
  41    -0.014425024864445
  42    -0.0051602798227593
  43    -0.0013757940046847
  44      0.37927217977935
  45     -0.59457776389787
  46     -0.09219775267972
  47    -0.030210286181083
  48    -0.0080461606800028
 Sym= A
 Ene=     0.593632925
 Spin= Alpha
 Occup=    0.00000
   1    0.0062167371469695
   2     0.072030609477133
   3     -0.39031216891997
   4      -0.4009459897681
   5     -0.41004309499202
   6     -0.10921148011241
   7      0.42997347439185
   8       1.0659314092471
   9      0.28391142476891
  10    -0.037190806758323
  11    -0.021657814383183
  12    0.0081744670446018
  13     0.035906589779975
  14    -0.081310464001718
  15     0.066550625081673
  16      0.24764248559848
  17     -0.39445485286658
  18     -0.15744302125699
  19     -0.28990517606381
  20    -0.077220641390071
  21      0.10770200891337
  22     -0.23583766655091
  23    -0.062817585753268
  24     0.047321886164367
  25     0.013621823901976
  26    -0.031999545477884
  27     0.029645899062647
  28     0.051140582007159
  29    -0.047693958074614
  30      0.50489664513501
  31     0.023446986098459
  32     0.035440437834405
  33    -0.032065998829843
  34    -0.047689004034904
  35      0.50487300401576
  36     0.023445108683692
  37     0.014793135215866
  38     0.045445245836387
  39     0.082450287112201
  40     -0.68070762191339
  41    -0.072603367679914
  42     0.035522970321202
  43    0.0094627202173249
  44      -1.0302287324191
  45      0.93968712931605
  46    -0.046978951497417
  47      0.13612918220288
  48     0.036260580685337
 Sym= A
 Ene=    0.6580174349
 Spin= Alpha
 Occup=    0.00000
   1      0.24703005798698
   2      -1.5091641175467
   3       3.6975209101078
   4      0.51200787011776
   5     -0.20967556616589
   6    -0.055940580281564
   7     -0.89610985561197
   8      0.48338685865345
   9      0.12893737380388
  10     0.020975919572565
  11    -0.0060207811075432
  12    0.0053750204436779
  13    -0.055103604368855
  14     -0.02257140862881
  15    0.0075046163842146
  16     0.028044625923129
  17    -0.091093956269756
  18    -0.044217251060153
  19    -0.0040651551068194
  20    -0.0010808074381864
  21     0.036585319604823
  22     -0.10484733072319
  23    -0.027946813931541
  24    0.0033583052876662
  25    0.0024705393860893
  26    -0.0044949856881118
  27    0.0098629345541749
  28    0.0092662531626411
  29      0.34809969642549
  30      -1.1136882191821
  31    -0.0012134199086634
  32    -0.073873126729263
  33     0.072656084196259
  34      0.34803492563743
  35      -1.1134189352434
  36    -0.0012002358561733
  37    -0.027935392309095
  38    -0.099756785409669
  39      0.44457579239455
  40       -1.668580694264
  41    -0.036244318318706
  42      0.14109617145085
  43     0.037581753706195
  44     -0.18445672955714
  45      0.23126418326047
  46    0.0087182055168314
  47    0.0069384065944643
  48    0.0018489095113844
 Sym= A
 Ene=     0.670918172
 Spin= Alpha
 Occup=    0.00000
   1    -2.1852267196811e-05
   2    0.00016528821236639
   3    -0.00046819297904814
   4    -4.7116015389269e-05
   5      0.24456257003117
   6     -0.91780774555542
   7    8.4941196435688e-05
   8     -0.47117658434694
   9       1.7682848621725
  10    -0.041468597461836
  11    -0.099664692512299
  12    -0.083517991211993
  13    -0.023934801090066
  14     0.026552874473255
  15    7.7524990000443e-06
  16    3.2408214669267e-05
  17    -1.4169845777457e-05
  18    -2.3755961210712e-06
  19    -0.0094992523956399
  20     0.035573781798483
  21    -9.9481883950627e-06
  22     0.049941280338546
  23     -0.18738050176948
  24    0.0019249211589619
  25     0.025518905349503
  26    0.0038709714944029
  27    0.0011134579447839
  28    -0.0067969899125401
  29      0.41504786692056
  30      -1.5729797674846
  31     -0.07545139738988
  32    -0.099699520982156
  33     0.078221475683697
  34     -0.41500334591959
  35       1.5730802941101
  36     0.075448386800842
  37     0.047587097185767
  38      0.11745495733611