5
	Energy:       3.5521585
O         -1.94796        2.68179       -0.23698
N         -0.60168        2.63566       -0.10020
H         -2.24348        1.74357       -0.12613
H         -0.32236        3.41705        0.53504
H         -0.18395        2.80986       -1.04138
